ITEM: TIMESTEP
0
ITEM: NUMBER OF ATOMS
118
ITEM: BOX BOUNDS pp pp pp
-2.0000000000000000e+02 2.0000000000000000e+02
-2.0000000000000000e+02 2.0000000000000000e+02
-2.0000000000000000e+02 2.0000000000000000e+02
ITEM: ATOMS id type xu yu zu
1 1 0 0 0
2 1 0 1.2 0
3 1 0 2.4 0
4 1 0 3.6 0
5 1 0 4.8 0
6 1 0 6 0
7 1 0 7.2 0
8 1 0 8.4 0
9 1 0 9.6 0
10 1 0 10.8 0
11 1 0 12 0
12 1 0 13.2 0
13 1 0 14.4 0
14 1 0 15.6 0
15 1 0 16.8 0
16 1 0 18 0
17 1 -0.848528 18.8485 0
18 1 -1.69706 19.6971 0
19 1 -2.54558 20.5456 0
20 1 -3.39411 21.3941 0
21 1 -4.24264 22.2426 0
22 1 -5.09117 23.0912 0
23 1 -5.9397 23.9397 0
24 1 -6.78822 24.7882 0
25 1 -7.63675 25.6368 0
26 1 -8.48528 26.4853 0
27 1 -9.33381 27.3338 0
28 1 -10.1823 28.1823 0
29 1 0.848528 18.8485 0
30 1 1.69706 19.6971 0
31 1 2.54558 20.5456 0
32 1 3.39411 21.3941 0
33 1 4.24264 22.2426 0
34 1 5.09117 23.0912 0
35 1 5.9397 23.9397 0
36 1 6.78822 24.7882 0
37 1 7.63675 25.6368 0
38 1 8.48528 26.4853 0
39 1 9.33381 27.3338 0
40 1 10.1823 28.1823 0
41 1 -1.03923 -0.6 0
42 1 -2.07846 -1.2 0
43 1 -3.11769 -1.8 0
44 1 -4.15692 -2.4 0
45 1 -5.19615 -3 0
46 1 -6.23538 -3.6 0
47 1 -7.27461 -4.2 0
48 1 -8.31384 -4.8 0
49 1 -9.35307 -5.4 0
50 1 -10.3923 -6 0
51 1 -11.4315 -6.6 0
52 1 -12.4708 -7.2 0
53 1 -13.51 -7.8 0
54 1 -14.5492 -8.4 0
55 1 -15.5885 -9 0
56 1 -15.899 -10.1591 0
57 1 -16.2096 -11.3182 0
58 1 -16.5202 -12.4773 0
59 1 -16.8308 -13.6364 0
60 1 -17.1414 -14.7956 0
61 1 -17.452 -15.9547 0
62 1 -17.7625 -17.1138 0
63 1 -18.0731 -18.2729 0
64 1 -18.3837 -19.432 0
65 1 -18.6943 -20.5911 0
66 1 -19.0049 -21.7502 0
67 1 -19.3155 -22.9093 0
68 1 -16.7476 -8.68942 0
69 1 -17.9067 -8.37883 0
70 1 -19.0658 -8.06825 0
71 1 -20.2249 -7.75767 0
72 1 -21.384 -7.44709 0
73 1 -22.5431 -7.1365 0
74 1 -23.7022 -6.82592 0
75 1 -24.8613 -6.51534 0
76 1 -26.0205 -6.20475 0
77 1 -27.1796 -5.89417 0
78 1 -28.3387 -5.58359 0
79 1 -29.4978 -5.27301 0
80 1 1.03923 -0.6 0
81 1 2.07846 -1.2 0
82 1 3.11769 -1.8 0
83 1 4.15692 -2.4 0
84 1 5.19615 -3 0
85 1 6.23538 -3.6 0
86 1 7.27461 -4.2 0
87 1 8.31384 -4.8 0
88 1 9.35307 -5.4 0
89 1 10.3923 -6 0
90 1 11.4315 -6.6 0
91 1 12.4708 -7.2 0
92 1 13.51 -7.8 0
93 1 14.5492 -8.4 0
94 1 15.5885 -9 0
95 1 16.7476 -8.68942 0
96 1 17.9067 -8.37883 0
97 1 19.0658 -8.06825 0
98 1 20.2249 -7.75767 0
99 1 21.384 -7.44709 0
100 1 22.5431 -7.1365 0
101 1 23.7022 -6.82592 0
102 1 24.8613 -6.51534 0
103 1 26.0205 -6.20475 0
104 1 27.1796 -5.89417 0
105 1 28.3387 -5.58359 0
106 1 29.4978 -5.27301 0
107 1 15.899 -10.1591 0
108 1 16.2096 -11.3182 0
109 1 16.5202 -12.4773 0
110 1 16.8308 -13.6364 0
111 1 17.1414 -14.7956 0
112 1 17.452 -15.9547 0
113 1 17.7625 -17.1138 0
114 1 18.0731 -18.2729 0
115 1 18.3837 -19.432 0
116 1 18.6943 -20.5911 0
117 1 19.0049 -21.7502 0
118 1 19.3155 -22.9093 0
ITEM: TIMESTEP
1000
ITEM: NUMBER OF ATOMS
118
ITEM: BOX BOUNDS pp pp pp
-2.0000000000000000e+02 2.0000000000000000e+02
-2.0000000000000000e+02 2.0000000000000000e+02
-2.0000000000000000e+02 2.0000000000000000e+02
ITEM: ATOMS id type xu yu zu
1 1 0.178357 0.0942961 0.0225371
2 1 0.603039 0.9562 0.24626
3 1 1.20259 1.47952 0.747831
4 1 0.846615 2.30689 1.05685
5 1 0.670772 3.25532 0.822256
6 1 0.91462 4.17242 0.513421
7 1 1.4027 5.05765 0.607365
8 1 1.19379 5.73167 1.30186
9 1 1.04971 6.73781 1.45583
10 1 0.435911 7.49152 1.38191
11 1 0.113702 8.38328 1.32889
12 1 0.102382 9.1305 0.683804
13 1 0.010361 9.95493 0.232107
14 1 -0.232616 10.8718 0.283336
15 1 -0.622481 11.778 0.00785982
16 1 -0.230211 12.6221 -0.0659177
17 1 -1.08069 12.5951 -0.407459
18 1 -1.0149 13.5055 -0.0675789
19 1 -1.54404 14.1591 -0.554693
20 1 -0.841269 14.5884 -1.07657
21 1 -0.809283 15.4768 -1.39545
22 1 -1.57646 16.0611 -1.56952
23 1 -1.72427 16.8534 -1.05496
24 1 -1.15945 17.5021 -0.609734
25 1 -1.59653 18.3326 -0.632278
26 1 -0.918796 19.1088 -0.73536
27 1 -1.56007 18.9669 -1.47633
28 1 -1.1423 18.5749 -2.22757
29 1 0.199895 13.4153 0.363445
30 1 0.583057 14.2368 0.744663
31 1 1.22076 14.7771 1.14415
32 1 1.67325 15.4479 0.65667
33 1 1.47792 16.3923 1.04949
34 1 1.54134 17.2727 0.742513
35 1 1.3654 18.1593 1.18316
36 1 1.93952 18.6756 0.577385
37 1 2.44719 19.2382 1.20336
38 1 2.65502 19.5561 0.321186
39 1 2.92393 20.3268 -0.176842
40 1 2.34866 19.7669 -0.690524
41 1 -0.450257 -0.592529 -0.136113
42 1 -1.28113 -1.05881 -0.153013
43 1 -1.88214 -1.79313 -0.259472
44 1 -2.83486 -1.93134 0.0931364
45 1 -3.80931 -1.99617 -0.00651062
46 1 -4.64774 -1.87891 -0.467718
47 1 -5.17979 -2.68399 -0.749095
48 1 -6.02941 -2.71291 -0.298071
49 1 -6.70804 -3.30007 -0.0939109
50 1 -7.55339 -3.75078 -0.303631
51 1 -8.34526 -4.25142 -0.387
52 1 -9.07622 -4.7776 0.0474622
53 1 -9.58903 -5.42798 -0.46273
54 1 -10.5332 -5.83218 -0.576086
55 1 -11.4038 -6.17439 -0.30305
56 1 -11.1928 -7.03499 0.159222
57 1 -11.8749 -7.59182 0.509816
58 1 -12.1755 -8.47153 0.223055
59 1 -11.8576 -9.18395 0.751783
60 1 -12.7835 -9.37857 0.962158
61 1 -13.2056 -10.1857 1.29201
62 1 -13.3188 -11.1525 1.47003
63 1 -14.0466 -10.5843 1.95093
64 1 -14.0458 -11.5177 1.87815
65 1 -14.2594 -12.0722 1.12621
66 1 -14.1099 -12.8668 0.580462
67 1 -14.7873 -13.5088 0.237813
68 1 -11.9813 -5.74337 0.42663
69 1 -12.9913 -5.75527 0.26146
70 1 -13.7694 -6.1749 -0.0637532
71 1 -14.6687 -6.4086 -0.463115
72 1 -15.3738 -5.74311 -0.251169
73 1 -16.0804 -6.4318 -0.625986
74 1 -16.9535 -6.60158 -0.197229
75 1 -17.4203 -6.79556 0.606933
76 1 -18.3171 -6.76252 1.23617
77 1 -19.0499 -7.43302 0.94933
78 1 -19.3921 -8.29169 0.668751
79 1 -19.6801 -8.94467 -0.00848534
80 1 0.872104 -0.139194 -0.616717
81 1 1.88216 -0.2497 -0.361892
82 1 2.85208 -0.377357 -0.264473
83 1 3.71027 -0.799641 0.0130819
84 1 4.49879 -1.0829 0.372192
85 1 5.39574 -1.51034 0.374506
86 1 6.13329 -2.2017 0.523937
87 1 6.81734 -2.86861 0.521344
88 1 7.15747 -3.60944 1.01108
89 1 7.78414 -4.1827 0.617619
90 1 8.69296 -4.50139 0.732018
91 1 9.46542 -4.99457 1.06345
92 1 10.1975 -5.46573 1.49389
93 1 10.9187 -5.73242 0.893781
94 1 11.5268 -6.43477 0.86821
95 1 12.2413 -6.64188 0.161359
96 1 12.6902 -7.32432 0.6458
97 1 13.5907 -6.93618 0.31644
98 1 14.531 -7.02123 0.599327
99 1 14.8215 -7.77317 0.183468
100 1 14.8116 -8.56088 -0.423986
101 1 15.1458 -9.45101 -0.197246
102 1 15.4807 -9.82904 0.626437
103 1 15.5104 -9.01438 1.07514
104 1 15.6779 -9.97948 0.848097
105 1 15.8345 -10.7399 0.325776
106 1 16.4352 -10.139 -0.217941
107 1 11.4361 -7.29402 0.331097
108 1 12.0397 -7.96045 0.0530865
109 1 12.0734 -8.81845 0.499514
110 1 12.477 -9.67324 0.854151
111 1 13.246 -10.2032 0.602014
112 1 13.8128 -10.9819 0.469051
113 1 14.4174 -11.5718 0.11104
114 1 15.2394 -11.4939 -0.469456
115 1 16.182 -11.6985 -0.115665
116 1 16.3878 -12.3553 0.576545
117 1 17.2401 -11.8479 0.61054
118 1 17.117 -12.5441 0.0137137
ITEM: TIMESTEP
2000
ITEM: NUMBER OF ATOMS
118
ITEM: BOX BOUNDS pp pp pp
-2.0000000000000000e+02 2.0000000000000000e+02
-2.0000000000000000e+02 2.0000000000000000e+02
-2.0000000000000000e+02 2.0000000000000000e+02
ITEM: ATOMS id type xu yu zu
1 1 0.3241 0.0720583 0.763413
2 1 0.327383 0.978257 1.27687
3 1 0.564364 1.95157 1.29552
4 1 0.213693 2.84511 1.29875
5 1 0.0575161 3.82284 1.42286
6 1 0.059321 4.78893 1.57332
7 1 -0.175595 5.69599 1.29746
8 1 -0.643421 6.49238 0.937055
9 1 -0.344675 7.32622 0.63448
10 1 0.476521 7.79869 0.29679
11 1 0.575561 8.60175 0.846734
12 1 0.0577553 9.4555 0.690697
13 1 0.124728 10.371 0.868123
14 1 0.519789 11.249 0.522369
15 1 0.220574 12.0473 0.0957564
16 1 -0.563847 12.7193 0.0854252
17 1 -0.560684 13.076 -0.814313
18 1 -0.770634 13.8574 -0.231885
19 1 -1.71792 13.7448 -0.303915
20 1 -1.22406 14.5269 -0.484451
21 1 -0.435359 14.5228 0.0638964
22 1 -0.762136 14.8681 -0.719738
23 1 -0.506111 15.8139 -1.10417
24 1 -1.45746 15.5964 -1.16164
25 1 -2.14304 16.1963 -0.743381
26 1 -2.94577 16.5549 -0.37595
27 1 -2.65234 16.896 -1.31327
28 1 -2.77147 16.682 -2.22512
29 1 0.204245 13.1596 -0.0898769
30 1 1.00106 13.6664 0.176097
31 1 1.75662 13.7578 -0.415024
32 1 1.64693 14.6594 -0.462255
33 1 2.4085 14.1535 -0.668156
34 1 1.95947 14.9408 -0.373941
35 1 1.03549 15.3186 -0.290991
36 1 0.279918 15.8209 -0.0532038
37 1 0.684509 15.4004 0.678553
38 1 0.739496 16.3934 0.708425
39 1 1.54088 16.7166 1.113
40 1 2.1983 16.4786 0.432215
41 1 -0.64813 -0.186309 0.665958
42 1 -1.29521 -0.66707 0.185087
43 1 -1.75898 -1.13797 0.835552
44 1 -2.37105 -1.63148 0.343203
45 1 -3.27626 -1.79816 0.0696985
46 1 -4.12779 -1.82933 0.510017
47 1 -5.10826 -1.75602 0.661514
48 1 -5.98498 -2.22829 0.702032
49 1 -6.88577 -2.28465 1.05488
50 1 -7.3277 -3.08985 0.697628
51 1 -8.14039 -3.52694 0.531635
52 1 -8.99409 -3.89461 0.189513
53 1 -9.59335 -4.29302 0.901487
54 1 -10.5003 -4.61819 0.859671
55 1 -11.1201 -5.24833 0.518197
56 1 -11.0988 -5.8233 -0.207325
57 1 -11.6338 -6.28336 0.496592
58 1 -11.8165 -7.05872 1.0201
59 1 -12.4756 -7.61965 0.61427
60 1 -13.1315 -8.34461 0.718002
61 1 -12.8718 -9.24426 0.306179
62 1 -13.377 -9.91536 0.872859
63 1 -13.2963 -10.826 0.596053
64 1 -12.8777 -11.6841 0.845178
65 1 -12.9653 -12.6002 1.30511
66 1 -12.2593 -12.4277 0.712111
67 1 -11.5455 -12.0587 0.160121
68 1 -11.9677 -4.71708 0.334975
69 1 -12.0176 -4.85129 1.30023
70 1 -12.7403 -5.3631 0.956635
71 1 -13.7466 -5.14655 0.763415
72 1 -14.1417 -5.66693 1.4991
73 1 -13.9269 -6.60227 1.50464
74 1 -13.7569 -7.05419 0.709468
75 1 -14.2354 -7.87215 0.603987
76 1 -14.2748 -6.87464 0.539911
77 1 -15.1762 -7.06071 0.408977
78 1 -15.6296 -6.61532 -0.39351
79 1 -15.3615 -6.97345 -1.29717
80 1 1.21909 0.178713 0.3494
81 1 2.18148 -0.035594 0.491673
82 1 2.90972 -0.426547 1.06956
83 1 3.66057 -1.06471 1.06886
84 1 4.62781 -0.998912 0.725147
85 1 4.4076 -1.3379 -0.0897433
86 1 5.03254 -2.09637 -0.127023
87 1 5.30376 -2.82014 0.407662
88 1 6.05587 -3.48263 0.403319
89 1 6.65617 -4.21142 0.223548
90 1 7.50633 -4.43591 -0.0976687
91 1 8.52022 -4.41618 -0.322329
92 1 8.60322 -5.32521 -0.503176
93 1 9.63828 -5.33789 -0.335731
94 1 9.77369 -6.28053 -0.148296
95 1 10.4473 -6.57207 0.479645
96 1 11.1332 -6.97714 -0.04828
97 1 12.0107 -7.29026 0.19506
98 1 12.8443 -7.29382 -0.229054
99 1 13.103 -6.88039 -1.03755
100 1 13.2709 -7.61843 -0.420849
101 1 13.835 -8.35849 -0.733158
102 1 14.3006 -7.99434 0.0576325
103 1 14.3634 -7.63797 -0.766549
104 1 14.0874 -7.51236 -1.64515
105 1 14.6586 -7.99251 -2.23379
106 1 15.5859 -8.26415 -2.48236
107 1 10.3988 -7.07699 -0.233728
108 1 10.3992 -8.04373 -0.399903
109 1 11.2647 -8.1887 -0.844758
110 1 12.2267 -8.20274 -1.07659
111 1 12.8916 -8.52843 -1.76092
112 1 12.6778 -9.45164 -1.85203
113 1 13.2597 -9.38235 -1.08964
114 1 13.9912 -9.94871 -0.746718
115 1 14.9512 -9.84965 -0.912389
116 1 14.9254 -10.4714 -0.127242
117 1 15.0999 -11.3694 0.123893
118 1 15.8474 -10.8281 0.13769
ITEM: TIMESTEP
3000
ITEM: NUMBER OF ATOMS
118
ITEM: BOX BOUNDS pp pp pp
-2.0000000000000000e+02 2.0000000000000000e+02
-2.0000000000000000e+02 2.0000000000000000e+02
-2.0000000000000000e+02 2.0000000000000000e+02
ITEM: ATOMS id type xu yu zu
1 1 0.521502 0.356197 0.749301
2 1 1.42061 0.699361 0.796616
3 1 1.5827 1.51137 1.3956
4 1 1.26635 2.29464 0.845327
5 1 0.571451 2.81618 0.40801
6 1 0.946194 3.74599 0.183146
7 1 0.615303 4.71062 0.154026
8 1 0.961012 5.5132 -0.355298
9 1 0.847836 6.51285 -0.4059
10 1 1.16587 7.36184 -0.281844
11 1 1.34462 8.29865 -0.181051
12 1 0.400729 8.36869 0.0653324
13 1 0.550866 9.23782 0.477088
14 1 0.263046 10.1291 0.621438
15 1 -0.282785 10.6591 -0.00754487
16 1 -0.584499 11.4532 -0.376602
17 1 -1.14276 12.2554 -0.343895
18 1 -2.00413 12.5408 -0.492386
19 1 -2.77684 12.5579 -1.07756
20 1 -2.67176 12.9812 -1.9012
21 1 -2.24598 12.5867 -0.969824
22 1 -2.15727 13.5212 -1.23986
23 1 -1.7203 14.2658 -0.86535
24 1 -2.45845 14.362 -0.227968
25 1 -3.21029 13.7705 -0.345766
26 1 -3.97785 13.5695 0.268669
27 1 -4.66044 14.2128 0.04089
28 1 -5.24241 14.192 -0.696162
29 1 -0.589181 12.1059 0.326857
30 1 -0.0648344 11.4638 -0.0812601
31 1 0.0696797 12.4601 -0.172536
32 1 0.0239106 12.8612 0.721159
33 1 0.525416 13.4662 0.195722
34 1 0.253589 14.3766 0.168557
35 1 0.0275577 15.0342 -0.501255
36 1 -0.076686 14.1257 -0.599798
37 1 0.191721 14.1097 -1.51385
38 1 1.15836 14.4704 -1.3671
39 1 1.87064 14.168 -0.813852
40 1 1.21719 14.0095 -1.46841
41 1 -0.0308808 -0.221971 0.196069
42 1 -0.432415 0.115726 -0.62193
43 1 -1.16814 -0.491153 -0.723614
44 1 -1.96097 -1.08436 -0.824445
45 1 -2.90389 -1.37182 -0.648441
46 1 -3.93987 -1.49608 -0.556951
47 1 -4.9023 -1.5321 -0.23648
48 1 -5.82839 -1.97111 -0.139399
49 1 -6.64545 -2.5259 0.180978
50 1 -7.49217 -2.569 -0.336008
51 1 -7.85514 -3.24833 -0.932906
52 1 -8.57667 -3.98968 -0.889844
53 1 -9.30972 -4.60586 -1.02913
54 1 -9.49658 -5.51726 -0.755867
55 1 -9.80603 -6.47005 -0.617904
56 1 -9.66894 -7.3975 -0.863251
57 1 -9.43931 -8.28143 -1.08753
58 1 -9.64954 -8.4763 -0.171034
59 1 -10.0602 -8.31581 -0.980889
60 1 -10.9924 -8.49166 -0.669491
61 1 -11.8493 -8.8495 -0.535925
62 1 -11.7846 -8.51176 -1.41644
63 1 -12.4622 -9.01264 -0.882515
64 1 -12.9767 -8.86279 -0.0770633
65 1 -13.8953 -8.90098 0.248194
66 1 -13.2671 -9.21269 0.898465
67 1 -12.488 -9.85694 0.804738
68 1 -10.4568 -6.8836 -0.140473
69 1 -11.1752 -6.40419 0.322037
70 1 -12.0202 -6.31613 -0.293289
71 1 -11.3564 -5.62448 -0.343758
72 1 -12.2128 -5.69842 -0.850446
73 1 -12.4213 -6.44398 -0.342568
74 1 -13.1647 -6.56483 -0.827065
75 1 -14.0969 -6.79263 -0.717833
76 1 -14.5666 -7.60303 -0.614616
77 1 -14.4406 -7.30071 0.334782
78 1 -14.4027 -6.38722 0.678494
79 1 -15.1618 -6.9589 0.786755
80 1 0.998957 -0.0224527 0.125571
81 1 1.9218 -0.362885 0.256985
82 1 2.82309 -0.635815 -0.119138
83 1 3.59719 -1.19258 -0.346992
84 1 4.23245 -0.62776 0.223569
85 1 4.81921 -1.31583 0.558722
86 1 5.72805 -1.40639 0.769279
87 1 5.81149 -2.23054 0.174674
88 1 6.69913 -2.47151 0.231247
89 1 7.1307 -3.23847 0.58937
90 1 7.77892 -3.8834 0.273807
91 1 8.61421 -4.28379 0.651713
92 1 9.07717 -5.10053 0.895581
93 1 9.04943 -5.68231 0.111595
94 1 9.71 -5.93258 -0.51947
95 1 10.6759 -5.87316 -0.751632
96 1 11.427 -6.35504 -0.316703
97 1 12.1992 -5.7511 -0.19454
98 1 11.7681 -6.38444 -0.724903
99 1 12.2539 -6.22436 -1.5064
100 1 13.0986 -6.75982 -1.56451
101 1 13.8916 -6.30597 -1.28545
102 1 14.1543 -6.09215 -2.14292
103 1 13.7098 -5.48829 -2.80141
104 1 14.6613 -5.4141 -2.97574
105 1 13.7178 -5.25546 -2.80488
106 1 13.1125 -4.91787 -3.50882
107 1 10.3892 -6.57234 -0.45787
108 1 10.6194 -7.44796 -0.766624
109 1 10.3657 -8.11228 -1.46126
110 1 11.0532 -7.67222 -2.09556
111 1 11.511 -8.16183 -2.77013
112 1 12.0485 -8.67601 -2.2015
113 1 12.4636 -8.29022 -1.42677
114 1 13.3421 -8.24029 -1.8738
115 1 14.1328 -7.75018 -1.88084
116 1 14.0417 -8.28166 -1.16209
117 1 14.6899 -8.9032 -1.44094
118 1 15.0197 -9.82999 -1.46951
ITEM: TIMESTEP
4000
ITEM: NUMBER OF ATOMS
118
ITEM: BOX BOUNDS pp pp pp
-2.0000000000000000e+02 2.0000000000000000e+02
-2.0000000000000000e+02 2.0000000000000000e+02
-2.0000000000000000e+02 2.0000000000000000e+02
ITEM: ATOMS id type xu yu zu
1 1 0.433593 -0.118066 -0.240602
2 1 1.12009 0.556728 -0.556941
3 1 0.901798 1.39691 0.0120929
4 1 0.663698 2.22816 -0.354276
5 1 0.787905 3.14284 -0.575207
6 1 1.47597 3.68554 -0.716405
7 1 0.979918 3.84642 0.188653
8 1 0.215955 4.48387 0.176244
9 1 -0.245372 5.37058 0.249204
10 1 0.432188 5.99744 0.113594
11 1 0.420582 6.93053 0.101808
12 1 0.671966 7.88636 0.321744
13 1 -0.00923606 8.27599 -0.159654
14 1 -0.732156 8.80012 -0.577292
15 1 -0.188488 9.56947 -0.220849
16 1 -1.00231 10.1581 -0.381583
17 1 -1.17967 10.8319 0.228352
18 1 -1.24736 11.7479 -0.168995
19 1 -2.1149 11.5534 0.223688
20 1 -1.97107 11.8561 -0.740361
21 1 -2.79925 12.2521 -0.460635
22 1 -2.98355 13.1685 -0.568414
23 1 -3.49902 13.2406 0.28184
24 1 -3.90871 14.0579 0.631676
25 1 -3.82078 13.1145 0.429341
26 1 -4.03859 14.057 -0.0385856
27 1 -4.58606 13.2681 -0.347725
28 1 -5.1008 13.4548 0.477578
29 1 -0.132636 10.1719 -0.69858
30 1 0.442668 10.3393 0.0702342
31 1 0.873554 10.9786 0.599635
32 1 0.244614 11.6595 0.5554
33 1 0.391971 11.3905 1.44883
34 1 1.0682 11.7802 0.881111
35 1 0.786981 12.5274 0.407228
36 1 0.891422 13.4863 0.453014
37 1 1.27702 14.3565 0.173769
38 1 0.774319 14.9191 -0.433815
39 1 -0.0451003 15.4548 -0.298028
40 1 -0.307234 14.7117 -0.782123
41 1 0.534008 -1.02898 -0.496797
42 1 -0.425199 -1.18808 -0.53852
43 1 -1.30895 -0.818575 -0.789061
44 1 -2.18192 -1.0215 -0.459873
45 1 -2.99847 -1.64893 -0.358712
46 1 -3.70922 -2.23412 -0.208949
47 1 -4.45964 -2.74079 0.353262
48 1 -5.34971 -3.13693 0.579703
49 1 -5.47432 -3.85912 -0.074106
50 1 -6.38501 -3.75271 0.119025
51 1 -6.95612 -3.28204 0.766331
52 1 -7.10184 -4.0407 0.150489
53 1 -8.03152 -3.82837 0.277977
54 1 -8.43246 -4.67033 -0.167051
55 1 -9.016 -5.03708 0.516954
56 1 -8.486 -5.17074 -0.432158
57 1 -8.67323 -6.12274 -0.692571
58 1 -9.50204 -6.43349 -1.15336
59 1 -9.28235 -6.90512 -0.316448
60 1 -9.56789 -7.66806 -0.798086
61 1 -10.2659 -7.92218 -1.40565
62 1 -11.0269 -8.12542 -0.80281
63 1 -11.9357 -7.89368 -0.870346
64 1 -12.6706 -8.13771 -1.49232
65 1 -13.513 -7.92756 -1.14834
66 1 -14.2255 -7.5799 -1.76823
67 1 -15.2043 -7.60357 -1.81852
68 1 -9.63879 -5.76664 0.45417
69 1 -10.0442 -4.97979 0.839658
70 1 -10.6542 -5.6917 0.784897
71 1 -11.5455 -5.37356 0.38158
72 1 -12.4294 -5.65865 0.392135
73 1 -12.8121 -6.48761 0.717408
74 1 -12.3674 -7.18298 1.17133
75 1 -11.6827 -7.74973 1.7086
76 1 -12.6895 -7.88953 1.89755
77 1 -13.5303 -7.51654 1.70935
78 1 -14.3011 -7.42312 1.16839
79 1 -15.1643 -7.04663 0.995286
80 1 1.18785 -0.464198 0.299292
81 1 1.482 -1.12943 0.867954
82 1 2.2473 -1.34504 1.33509
83 1 2.75158 -0.903021 0.649003
84 1 3.40533 -1.5729 0.754034
85 1 4.34812 -1.66195 0.960581
86 1 4.22328 -2.58582 1.09611
87 1 5.21356 -2.77308 0.979045
88 1 5.98901 -3.34665 0.961838
89 1 6.94141 -3.38955 0.673323
90 1 7.69659 -3.83682 0.451445
91 1 8.24907 -4.10803 1.21283
92 1 8.39109 -4.40241 0.241932
93 1 8.97111 -4.6749 -0.510445
94 1 9.39531 -5.13716 0.310162
95 1 10.278 -5.67359 0.134332
96 1 11.0457 -5.69114 -0.412787
97 1 11.5191 -5.42362 0.348143
98 1 11.8398 -5.75805 -0.506802
99 1 11.5036 -4.85125 -0.41668
100 1 12.357 -5.05465 -0.794719
101 1 12.9453 -4.95487 -1.59028
102 1 13.1465 -5.8734 -1.58314
103 1 13.512 -5.34282 -2.29316
104 1 13.3841 -4.82831 -3.13572
105 1 13.9121 -4.08811 -3.4114
106 1 14.8778 -4.0316 -3.20478
107 1 9.68462 -5.63543 -0.452861
108 1 9.72 -5.51829 -1.47641
109 1 10.1087 -6.32602 -1.75807
110 1 11.0163 -5.94918 -1.98761
111 1 10.5921 -6.30163 -2.73929
112 1 11.5225 -6.14302 -2.52598
113 1 12.1098 -6.684 -3.09314
114 1 11.217 -7.02186 -3.2954
115 1 12.1546 -6.8312 -3.33208
116 1 12.5143 -7.67581 -3.28533
117 1 13.0985 -6.95055 -2.92737
118 1 12.9731 -7.3212 -2.08921
ITEM: TIMESTEP
5000
ITEM: NUMBER OF ATOMS
118
ITEM: BOX BOUNDS pp pp pp
-2.0000000000000000e+02 2.0000000000000000e+02
-2.0000000000000000e+02 2.0000000000000000e+02
-2.0000000000000000e+02 2.0000000000000000e+02
ITEM: ATOMS id type xu yu zu
1 1 -0.703891 0.810015 0.903663
2 1 -0.573362 1.70236 1.21607
3 1 -0.830688 2.33478 0.546499
4 1 -0.0473446 2.8384 0.536253
5 1 0.327323 3.84124 0.565493
6 1 0.588388 4.04109 -0.34899
7 1 0.822727 4.96005 -0.4602
8 1 1.66739 5.16139 -0.904447
9 1 1.40971 5.69693 -0.143953
10 1 1.51476 6.58594 0.205296
11 1 1.90097 7.40098 0.534393
12 1 1.62429 8.29691 0.482937
13 1 1.41923 8.95231 -0.214555
14 1 0.72473 8.80675 0.360651
15 1 0.794217 9.68115 -0.113984
16 1 -0.0871197 10.0083 0.159714
17 1 -0.958065 10.2107 -0.0481702
18 1 -1.43435 10.975 0.366481
19 1 -2.25771 11.4007 0.648323
20 1 -2.11508 12.3139 0.209095
21 1 -3.04852 12.1147 0.169519
22 1 -2.94263 12.7332 -0.527198
23 1 -3.62821 13.2908 -0.993653
24 1 -4.27241 12.927 -1.64846
25 1 -4.86378 13.0586 -1.00224
26 1 -4.43917 13.7332 -0.435192
27 1 -4.68561 14.5606 -0.823916
28 1 -5.40482 13.9953 -1.04791
29 1 0.619951 10.3603 -0.448607
30 1 0.584513 10.3405 0.528095
31 1 0.212736 11.0093 -0.028956
32 1 0.752286 11.8552 0.02617
33 1 0.907766 12.7559 0.35158
34 1 1.31884 13.11 -0.463934
35 1 0.764485 13.7958 -0.154455
36 1 1.21413 14.1942 0.595119
37 1 0.983975 15.0342 0.0837613
38 1 0.592184 15.8045 -0.356595
39 1 -0.324905 16.123 -0.308994
40 1 -0.899555 15.4313 0.0401229
41 1 -1.4647 0.533674 0.370333
42 1 -1.64606 -0.226215 -0.269176
43 1 -2.48599 -0.126143 0.202356
44 1 -3.07431 -0.836146 0.0320448
45 1 -3.77994 -1.55862 0.03072
46 1 -4.10734 -1.18461 -0.840347
47 1 -5.04152 -1.02063 -0.864656
48 1 -5.63452 -1.59758 -0.244735
49 1 -6.17438 -1.75366 -1.00472
50 1 -6.33517 -2.60715 -0.708361
51 1 -6.3452 -3.42695 -0.186095
52 1 -6.4946 -4.38936 -0.162409
53 1 -6.8811 -5.01008 0.445485
54 1 -7.68948 -5.3203 -0.0439016
55 1 -8.47551 -5.6392 -0.510138
56 1 -8.16838 -6.19339 -1.20205
57 1 -9.03538 -6.35466 -1.75435
58 1 -9.27318 -6.80322 -0.926752
59 1 -9.63305 -7.21293 -1.6935
60 1 -10.2676 -6.67651 -1.2925
61 1 -9.81691 -7.44836 -0.982437
62 1 -10.3981 -8.17631 -1.14722
63 1 -10.4994 -7.62555 -1.97585
64 1 -10.5313 -7.44125 -2.95271
65 1 -11.3441 -7.05826 -2.99718
66 1 -10.5229 -6.80574 -2.70289
67 1 -9.90908 -7.58777 -2.83075
68 1 -8.42599 -5.54138 0.464977
69 1 -8.68993 -5.06452 1.34438
70 1 -9.10415 -4.53823 2.04456
71 1 -8.47933 -5.13815 2.38197
72 1 -9.30237 -5.37202 1.84294
73 1 -10.0083 -4.94303 2.23396
74 1 -10.0352 -5.88314 2.02309
75 1 -10.6634 -5.76033 2.74352
76 1 -11.1575 -6.42524 3.14135
77 1 -10.653 -6.35727 2.30145
78 1 -11.4363 -5.82841 2.17098
79 1 -12.3729 -5.77828 2.04461
80 1 0.203976 0.490532 0.970482
81 1 1.04086 -0.0140645 0.724035
82 1 2.02172 -0.234569 1.00143
83 1 2.73717 -0.721839 1.45416
84 1 2.61934 0.169488 1.2206
85 1 3.16098 -0.705189 1.27709
86 1 3.63404 -1.2086 1.93719
87 1 4.32468 -1.55916 1.32401
88 1 4.96622 -1.72728 0.658062
89 1 5.7136 -1.37853 0.114396
90 1 5.70168 -2.3463 0.285698
91 1 6.44561 -3.02657 0.149054
92 1 7.1819 -3.67522 0.219317
93 1 8.05997 -3.99321 -0.0246066
94 1 8.11478 -4.92942 -0.173056
95 1 8.86772 -5.32595 -0.676993
96 1 9.83522 -5.63802 -0.435874
97 1 10.6595 -5.48011 -0.865918
98 1 11.5835 -5.73927 -0.814762
99 1 12.1491 -5.93593 -1.59482
100 1 12.8879 -5.83501 -2.18577
101 1 13.1886 -6.02124 -3.08188
102 1 13.8861 -6.15003 -3.78459
103 1 14.8286 -5.94069 -3.57593
104 1 14.275 -5.78322 -2.73155
105 1 14.6231 -5.74995 -1.82266
106 1 15.3225 -6.15835 -2.22463
107 1 9.0868 -5.12369 -0.0866958
108 1 8.91689 -5.44232 -1.02281
109 1 9.26857 -5.97866 -1.75007
110 1 10.0778 -6.56573 -1.81632
111 1 9.45799 -7.07832 -2.33424
112 1 9.218 -7.43414 -3.13539
113 1 8.83722 -8.26451 -3.39725
114 1 9.35653 -8.94199 -3.84222
115 1 8.84738 -8.17543 -3.60994
116 1 8.68987 -8.66838 -2.77982
117 1 8.28214 -8.80473 -1.95156
118 1 9.02021 -9.11372 -2.48157
ITEM: TIMESTEP
6000
ITEM: NUMBER OF ATOMS
118
ITEM: BOX BOUNDS pp pp pp
-2.0000000000000000e+02 2.0000000000000000e+02
-2.0000000000000000e+02 2.0000000000000000e+02
-2.0000000000000000e+02 2.0000000000000000e+02
ITEM: ATOMS id type xu yu zu
1 1 -0.44591 -0.207937 -0.862496
2 1 -0.222546 0.730962 -0.783303
3 1 -0.449971 1.69682 -0.913678
4 1 -0.250148 2.66534 -0.923031
5 1 -0.802664 2.0217 -0.423255
6 1 -0.985719 2.58373 0.291517
7 1 -1.1588 3.27676 0.929638
8 1 -1.44103 4.11713 1.43741
9 1 -1.55446 4.73301 0.734118
10 1 -2.20659 5.35741 0.412084
11 1 -2.27885 6.38143 0.178659
12 1 -2.75554 7.09649 0.564661
13 1 -2.13373 7.71971 0.123924
14 1 -1.69237 8.46176 0.504359
15 1 -1.22864 9.27768 0.160064
16 1 -0.957895 10.2298 0.0910072
17 1 -1.1746 9.3271 -0.248126
18 1 -2.11956 9.48074 -0.29082
19 1 -1.84356 10.2151 0.233866
20 1 -2.66993 10.6245 -0.0425002
21 1 -2.55508 11.478 0.503953
22 1 -3.34517 10.9091 0.542224
23 1 -3.23074 11.6358 -0.135499
24 1 -3.14531 12.2923 0.619231
25 1 -3.25011 13.0941 0.141337
26 1 -4.04046 13.6605 0.116895
27 1 -3.58437 14.214 -0.58605
28 1 -4.34502 14.0191 0.0186663
29 1 -1.309 11.0695 -0.190753
30 1 -0.415886 11.3248 0.13183
31 1 -0.76951 12.2156 0.125411
32 1 -1.54896 12.0177 -0.421425
33 1 -2.13422 12.5996 0.0173527
34 1 -1.4092 12.6996 -0.563009
35 1 -0.8034 13.0616 -1.28672
36 1 -0.597292 13.9259 -0.842733
37 1 -0.4737 13.3508 -0.0533228
38 1 -1.12584 13.735 0.581107
39 1 -1.11536 14.0817 -0.321774
40 1 -1.47502 14.808 0.0733321
41 1 -1.16477 0.302524 -0.482029
42 1 -2.03535 0.282627 -0.0273615
43 1 -2.92535 0.0517527 -0.32392
44 1 -3.49818 -0.0107751 -1.11538
45 1 -3.61712 -0.648291 -1.82746
46 1 -4.31538 -1.21888 -1.45351
47 1 -4.12996 -2.03635 -0.942416
48 1 -5.09233 -2.10567 -0.817115
49 1 -5.23875 -2.77327 -1.4528
50 1 -6.10014 -2.7542 -0.96453
51 1 -6.13387 -3.74421 -1.04141
52 1 -6.63036 -4.2629 -0.386629
53 1 -7.47064 -4.23473 0.0410448
54 1 -7.15531 -5.10454 0.298546
55 1 -6.70974 -5.8283 0.68571
56 1 -7.33514 -5.11393 0.37377
57 1 -7.4187 -5.88017 -0.26865
58 1 -7.40581 -6.60075 -0.92692
59 1 -8.06477 -6.81413 -1.6041
60 1 -8.89931 -6.89782 -1.14947
61 1 -9.17988 -7.43117 -1.88964
62 1 -10.0763 -7.14015 -2.07702
63 1 -11.0171 -7.29732 -1.89933
64 1 -11.2916 -6.3986 -2.33142
65 1 -11.4768 -7.14253 -2.91557
66 1 -11.7546 -8.03252 -2.72032
67 1 -11.1821 -8.51615 -3.22578
68 1 -6.90198 -4.92765 0.773814
69 1 -7.53129 -5.34837 1.38437
70 1 -7.89852 -5.73498 2.20673
71 1 -7.37829 -5.52468 2.94355
72 1 -8.2434 -5.63787 2.59309
73 1 -8.13455 -5.97159 3.52255
74 1 -8.98652 -6.05558 3.18254
75 1 -9.91942 -6.27563 3.20722
76 1 -9.78868 -6.16478 2.22854
77 1 -9.57568 -5.4207 1.63202
78 1 -9.29106 -5.23097 2.52513
79 1 -10.1819 -4.6769 2.54357
80 1 0.366753 -0.616482 -1.03762
81 1 0.0455518 -1.22132 -0.329504
82 1 0.825453 -1.48867 -0.828823
83 1 1.68889 -1.96014 -0.516372
84 1 2.63323 -1.97417 -0.385001
85 1 2.28613 -2.2893 0.431696
86 1 3.29715 -2.19958 0.479051
87 1 4.17473 -2.54081 0.379455
88 1 5.07001 -2.41982 -0.0351157
89 1 5.00439 -3.36491 0.0257882
90 1 5.63527 -4.12868 0.26356
91 1 5.89231 -3.76638 1.15064
92 1 6.32713 -4.62536 1.10119
93 1 6.85054 -4.28137 0.431787
94 1 6.8254 -5.32561 0.629695
95 1 7.22242 -6.19052 0.905732
96 1 8.03833 -6.39991 0.44251
97 1 8.94303 -6.66193 0.334201
98 1 9.44903 -7.00238 -0.411803
99 1 9.56936 -6.27258 -0.964155
100 1 10.5423 -6.31005 -1.08956
101 1 11.3621 -6.0485 -1.45372
102 1 11.4481 -5.38584 -2.06923
103 1 12.3873 -5.49907 -2.18957
104 1 12.8741 -5.38718 -3.01874
105 1 12.5538 -5.8743 -3.77456
106 1 13.4824 -5.81027 -3.87903
107 1 6.78771 -5.84475 -0.19356
108 1 7.28367 -6.3189 -0.864922
109 1 7.80395 -6.82044 -1.51214
110 1 7.52878 -6.13011 -2.12115
111 1 7.21335 -7.04051 -1.87814
112 1 8.05935 -6.81351 -2.26853
113 1 8.35436 -5.91472 -2.19738
114 1 8.29833 -6.68124 -2.73604
115 1 8.54814 -7.61466 -3.08573
116 1 8.88028 -7.91618 -2.15705
117 1 9.23085 -8.79859 -1.88431
118 1 9.44282 -9.6377 -2.39454
ITEM: TIMESTEP
7000
ITEM: NUMBER OF ATOMS
118
ITEM: BOX BOUNDS pp pp pp
-2.0000000000000000e+02 2.0000000000000000e+02
-2.0000000000000000e+02 2.0000000000000000e+02
-2.0000000000000000e+02 2.0000000000000000e+02
ITEM: ATOMS id type xu yu zu
1 1 0.279211 0.466533 1.473
2 1 0.270196 1.29876 0.965644
3 1 -0.365453 1.60377 0.390042
4 1 -0.237119 1.95558 -0.486792
5 1 0.258018 2.71439 -0.130779
6 1 0.0186923 3.45861 0.434151
7 1 -0.912029 3.52762 0.52535
8 1 -1.25682 4.42337 0.789778
9 1 -1.74916 5.03256 0.299881
10 1 -2.31621 5.00488 -0.505546
11 1 -3.18266 5.42532 -0.549014
12 1 -3.44857 6.12221 -1.16029
13 1 -3.77376 7.09303 -1.27312
14 1 -3.27316 7.75561 -0.748826
15 1 -2.4013 8.11456 -0.562711
16 1 -1.42464 8.19702 -0.535918
17 1 -2.20226 8.33381 -1.06321
18 1 -2.8447 8.99588 -0.717157
19 1 -2.11081 9.47121 -0.371627
20 1 -2.33843 9.15727 0.500814
21 1 -1.782 9.1368 1.28101
22 1 -2.05516 10.0082 0.96326
23 1 -2.62422 10.6488 1.33044
24 1 -2.46156 10.9061 0.375721
25 1 -3.01112 10.5915 1.19018
26 1 -2.97674 11.6294 1.0817
27 1 -2.97449 12.5373 0.773047
28 1 -2.15865 13.1304 0.644761
29 1 -0.564499 8.74125 -0.381498
30 1 0.226618 9.28179 -0.568767
31 1 0.545729 9.73398 0.201896
32 1 1.40352 9.99931 -0.145348
33 1 1.46039 10.9617 0.131888
34 1 0.549588 11.2469 0.337189
35 1 0.837094 11.8734 -0.310742
36 1 0.932403 12.1974 0.64082
37 1 0.56904 11.4203 1.08884
38 1 -0.352683 11.3813 0.972887
39 1 -0.579794 11.9783 0.233754
40 1 -1.01848 12.8449 0.0783267
41 1 -0.492293 0.470858 0.841811
42 1 -1.32288 0.301723 0.332465
43 1 -2.26953 0.318498 0.0617281
44 1 -2.06691 0.605587 -0.816515
45 1 -2.86018 0.196481 -1.23943
46 1 -3.20955 -0.667838 -1.44887
47 1 -3.42402 -1.48134 -2.03779
48 1 -3.1674 -1.06031 -1.21043
49 1 -4.03808 -1.4626 -1.11588
50 1 -4.60943 -2.20843 -1.18346
51 1 -5.21957 -2.91016 -1.24742
52 1 -5.70346 -3.66287 -0.879831
53 1 -6.59323 -3.94059 -0.628078
54 1 -6.96842 -4.70797 -0.163741
55 1 -7.6783 -4.32573 0.420061
56 1 -8.10528 -5.17858 0.467227
57 1 -8.95117 -4.97404 0.950202
58 1 -9.64483 -5.22477 0.352735
59 1 -10.2595 -4.66917 -0.114856
60 1 -10.6981 -5.26891 -0.750845
61 1 -11.0545 -6.10269 -0.36257
62 1 -10.7942 -5.68093 -1.16748
63 1 -10.6939 -6.05251 -2.05389
64 1 -11.2966 -6.49046 -2.73238
65 1 -11.4339 -6.31813 -3.658
66 1 -12.3961 -6.42608 -3.5611
67 1 -11.7207 -5.73884 -3.43559
68 1 -7.15581 -5.06838 0.11258
69 1 -6.90412 -5.95791 0.504451
70 1 -6.94169 -6.85948 0.772682
71 1 -7.66328 -7.20961 1.35201
72 1 -8.02804 -7.45416 2.22812
73 1 -8.83598 -6.93225 2.1586
74 1 -9.73264 -6.87922 2.56061
75 1 -10.6194 -6.56784 2.25664
76 1 -10.6806 -6.91637 3.17349
77 1 -11.0375 -6.86091 2.29975
78 1 -10.8822 -5.99563 1.92679
79 1 -11.2849 -6.05806 0.992772
80 1 1.25089 0.757417 1.51168
81 1 1.26091 0.312265 0.605579
82 1 2.11824 -0.137903 0.926897
83 1 2.8032 -0.756086 1.12629
84 1 3.16005 -1.63813 1.37362
85 1 3.67299 -1.83524 0.54221
86 1 3.49733 -2.70633 0.046252
87 1 3.57075 -3.00639 -0.81955
88 1 3.59179 -3.52965 -1.56587
89 1 3.611 -3.01268 -0.756831
90 1 4.39914 -3.48869 -0.491752
91 1 5.1333 -3.88356 -1.02322
92 1 6.06903 -4.06192 -0.812475
93 1 6.8207 -4.55041 -1.08192
94 1 7.07699 -5.34904 -0.583554
95 1 7.59782 -5.89568 -0.0666758
96 1 7.57732 -6.37135 0.75051
97 1 8.32044 -5.78204 0.985385
98 1 8.87345 -5.24232 1.47092
99 1 9.04325 -5.76952 0.613414
100 1 9.96717 -5.68136 0.270903
101 1 10.7105 -5.53717 -0.294147
102 1 11.0234 -4.84829 0.196173
103 1 11.8717 -5.37553 0.202817